
                                 *****************
                                 * O   R   C   A *
                                 *****************

                                            #,                                       
                                            ###                                      
                                            ####                                     
                                            #####                                    
                                            ######                                   
                                           ########,                                 
                                     ,,################,,,,,                         
                               ,,#################################,,                 
                          ,,##########################################,,             
                       ,#########################################, ''#####,          
                    ,#############################################,,   '####,        
                  ,##################################################,,,,####,       
                ,###########''''           ''''###############################       
              ,#####''   ,,,,##########,,,,          '''####'''          '####       
            ,##' ,,,,###########################,,,                        '##       
           ' ,,###''''                  '''############,,,                           
         ,,##''                                '''############,,,,        ,,,,,,###''
      ,#''                                            '''#######################'''  
     '                                                          ''''####''''         
             ,#######,   #######,   ,#######,      ##                                
            ,#'     '#,  ##    ##  ,#'     '#,    #''#        ,####,   ,####,        
            ##       ##  ##   ,#'  ##            #'  '#       #'       #'  '#        
            ##       ##  #######   ##           ,######,      #####,   #    #        
            '#,     ,#'  ##    ##  '#,     ,#' ,#      #,     #,   #   #,  ,#        
             '#######'   ##     ##  '#######'  #'      '#     '####' # '####'        



                #########################################################
                #                        -***-                          #
                #          Department of theory and spectroscopy        #
                #                                                       #
                #                      Frank Neese                      #
                #                                                       #
                #     Directorship, Architecture, Infrastructure        #
                #                    SHARK, DRIVERS                     #
                #        Core code/Algorithms in most modules           #
                #                                                       #
                #        Max Planck Institute fuer Kohlenforschung      #
                #                Kaiser Wilhelm Platz 1                 #
                #                 D-45470 Muelheim/Ruhr                 #
                #                      Germany                          #
                #                                                       #
                #                  All rights reserved                  #
                #                        -***-                          #
                #########################################################


                         Program Version 6.0.x  -  CURRENT   -
                                (GIT: $e05e1c5$)
                          ($2025-02-16 21:55:17 +0100$)


 With contributions from (in alphabetic order):
[Max-Planck-Institut fuer Kohlenforschung]                               
  Daniel Aravena         : Magnetic Suceptibility                        
  Michael Atanasov       : Ab Initio Ligand Field Theory (pilot matlab implementation)
  Alexander A. Auer      : GIAO ZORA, VPT2 properties, NMR spectrum      
  Ute Becker             : All parallelization in ORCA, NUMFREQ, NUMCALC 
  Giovanni Bistoni       : ED, misc. LED, open-shell LED, HFLD           
  Martin Brehm           : Molecular dynamics                            
  Dmytro Bykov           : pre 5.0 version of the SCF Hessian            
  Marcos Casanova-Páez   : Triplet and SCS-CIS(D). UHF-(DLPNO)-IP/EA/STEOM-CCSD. UHF-CVS-IP/STEOM-CCSD   
  Vijay G. Chilkuri      : MRCI spin determinant printing, contributions to CSF-ICE 
  Pauline Colinet        : FMM embedding                                 
  Dipayan Datta          : RHF DLPNO-CCSD density                        
  Achintya Kumar Dutta   : EOM-CC, STEOM-CC                              
  Nicolas Foglia         : Exact transition moments, OPA infrastructure, MCD improvements    
  Dmitry Ganyushin       : Spin-Orbit,Spin-Spin,Magnetic field MRCI      
  Miquel Garcia-Rates    : C-PCM and meta-GGA Hessian, CCSD/C-PCM, Gaussian charge scheme 
  Tiago L. C. Gouveia    : GS-ROHF, GS-ROCIS                             
  Yang Guo               : DLPNO-NEVPT2, F12-NEVPT2, CIM, IAO-localization        
  Andreas Hansen         : Spin unrestricted coupled pair/coupled cluster methods 
  Ingolf Harden          : AUTO-CI MPn and infrastructure                
  Benjamin Helmich-Paris : MC-RPA, TRAH-(SCF,CASSCF), AVAS, COSX integrals, SCF dyn. polar. 
  Lee Huntington         : MR-EOM, pCC                                   
  Robert Izsak           : Overlap fitted RIJCOSX, COSX-SCS-MP3, EOM     
  Riya Kayal             : Wick's Theorem for AUTO-CI, AUTO-CI UHF-CCSDT 
  Emily Kempfer          : AUTO-CI, RHF CISDT and CCSDT                  
  Christian Kollmar      : KDIIS, OOCD, Brueckner-CCSD(T), CCSD density, CASPT2, CASPT2-K, improved NEVPT2 
  Axel Koslowski         : Symmetry handling                             
  Simone Kossmann        : meta-GGA functionals, TD-DFT gradient, OOMP2, (MP2 Hessian; deprecated post 5.0) 
  Lucas Lang             : DCDCAS                                        
  Marvin Lechner         : AUTO-CI (C++ implementation), FIC-MRCC        
  Spencer Leger          : CASSCF response                               
  Dagmar Lenk            : GEPOL surface, SMD, ORCA-2-JSON               
  Dimitrios Liakos       : Extrapolation schemes; Compound Job, initial MDCI parallelization 
  Dimitrios Manganas     : Further ROCIS development; embedding schemes. LFT, Crystal Embedding 
  Dimitrios Pantazis     : SARC Basis sets                               
  Anastasios Papadopoulos: AUTO-CI, single reference methods and gradients 
  Taras Petrenko         : pre 6.0 DFT Hessian and TD-DFT gradient, (ASA, deprecated), ECA, 1-Electron XAS/XES, NRVS 
  Peter Pinski           : DLPNO-MP2, DLPNO-MP2 Gradient                 
  Christoph Reimann      : Effective Core Potentials                     
  Marius Retegan         : Local ZFS, SOC                                
  Christoph Riplinger    : Optimizer, TS searches, QM/MM, DLPNO-CCSD(T), (RO)-DLPNO pert. Triples 
  Michael Roemelt        : Original ROCIS implementation                 
  Masaaki Saitow         : Open-shell DLPNO-CCSD energy and density      
  Barbara Sandhoefer     : DKH picture change effects                    
  Kantharuban Sivalingam : CASSCF convergence/infrastructure, NEVPT2 and variants, FIC-MRCI 
  Bernardo de Souza      : ESD, SOC TD-DFT                               
  Georgi L. Stoychev     : AutoAux, RI-MP2 NMR, DLPNO-MP2 response, X2C  
  Van Anh Tran           : RI-MP2 g-tensors                              
  Willem Van den Heuvel  : Paramagnetic NMR                              
  Zikuan Wang            : NOTCH, Electric field optimization            
  Frank Wennmohs         : Technical directorship and infrastructure     
  Hang Xu                : AUTO-CI-Response properties                   
                                                                         
[FACCTs GmbH]                                                            
  Markus Bursch, Miquel Garcia-Rates, Christoph Riplinger, Bernardo de Souza, Georgi L. Stoychev 
                                                                 
  APM, Basis sets (HGBS, AHGBS, def-TZVP (Ac-Lr), def2-XVPD (La-Lu)), CI-OPT, improved COSX, DLPNO-Multilevel,           
  DOCKER, DRACO, updates on ESD, GOAT, IRC, LR-CPCM, MBIS, meta-GGA TD-DFT gradient, ML-optimized integration grids, 
  MM, NACMEs, nearIR, NEB, NEB-TS, NL-DFT gradient (VV10), 2- and 3-layer-ONIOM, interface openCOSMO-RS, QMMM,   
  Crystal-QMMM, SF, symmetry and pop. for TD-DFT, r2SCAN hybrids, SOLVATOR                                   
                                                                         
[Other institutions]                                                     
  V. Asgeirsson          : NEB                                           
  Christoph Bannwarth    : sTDA-DFT, sTD-DFT, PBEh-3c, B97-3c, D3        
  Sebastian Ehlert       : rSCAN, r2SCAN, r2SCAN-3c, D4, dhf basis sets  
  Marvin Friede          : D4 for Fr, Ra, Ac-Lr                          
  Lars Goerigk           : TD-DFT with DH, B97 family of functionals     
  Stefan Grimme          : VdW corrections, initial TS optimization, DFT functionals, gCP, sTDA/sTD-DF 
  Waldemar Hujo          : DFT-NL                                        
  H. Jonsson             : NEB                                           
  Holger Kruse           : gCP                                           
  Marcel Mueller         : wB97X-3c, vDZP basis set                      
  Hagen Neugebauer       : wr2SCAN                                       
  Tobias Risthaus        : range-separated hybrid DFT                    
  Lukas Wittmann         : regularized MP2, r2SCAN double-hybrids, wr2SCAN        
                                                                         
We gratefully acknowledge several colleagues who have allowed us to      
interface, adapt or use parts of their codes:                            
  Ed Valeev, F. Pavosevic, A. Kumar             : LibInt (2-el integral package), F12 methods 
  Garnet Chan, S. Sharma, J. Yang, R. Olivares  : DMRG                   
  Ulf Ekstrom                                   : XCFun DFT Library      
  Mihaly Kallay                                 : mrcc  (arbitrary order and MRCC methods)
  Frank Weinhold                                : gennbo (NPA and NBO analysis)           
  Simon Mueller                                 : openCOSMO-RS                            
  Christopher J. Cramer and Donald G. Truhlar   : smd solvation model                     
  S Lehtola, MJT Oliveira, MAL Marques          : LibXC Library                           
  Liviu Ungur et al                             : ANISO software                          


 Your calculation uses the libint2 library for the computation of 2-el integrals
 For citations please refer to: http://libint.valeyev.net

 Your ORCA version has been built with support for libXC version: 6.2.2
 For citations please refer to: https://libxc.gitlab.io

 This ORCA versions uses:
   CBLAS   interface :  Fast vector & matrix operations
   LAPACKE interface :  Fast linear algebra routines
   SCALAPACK package :  Parallel linear algebra routines
   Shared memory     :  Shared parallel matrices
   BLAS/LAPACK       :  OpenBLAS 0.3.27  USE64BITINT DYNAMIC_ARCH NO_AFFINITY Haswell SINGLE_THREADED
        Core in use  :  Haswell
   Copyright (c) 2011-2014, The OpenBLAS Project


Your calculation utilizes the atom-pairwise dispersion correction
with the Becke-Johnson damping scheme (D3BJ)


Warning: RI is on but no J-basis has been assigned. Assigning Def2/J (nothing to worry about!)
================================================================================

----- Orbital basis set information -----
Your calculation utilizes the basis: def2-SVP
   F. Weigend and R. Ahlrichs, Phys. Chem. Chem. Phys. 7, 3297 (2005).

----- AuxJ basis set information -----
Your calculation utilizes the auxiliary basis: def2/J
   H-Rn: F. Weigend, Phys. Chem. Chem. Phys. 8, 1057 (2006).
   Fr-Lr: K. Eichkorn, F. Weigend, O. Treutler, R. Ahlrichs; Theor. Chem. Acc. 97, 119 (1997).

Entering PROP_SetInput_PropInt
   => GeomPert = NO
================================================================================
                                        WARNINGS
                       Please study these warnings very carefully!
================================================================================

WARNING: Old DensityContainer found on disk!
         Will remove this file - 
         If you want to keep old densities, please start your calculation with a different basename. 


WARNING: your system is open-shell and RHF/RKS was chosen
  ===> : WILL SWITCH to UHF/UKS


WARNING: Geometry Optimization
  ===> : Switching off AutoStart
         For restart on a previous wavefunction, please use MOREAD

================================================================================
                                       INPUT FILE
================================================================================
NAME = job.inp
|  1> ! B3LYP D3BJ def2-SVP Opt VeryTightSCF
|  2> 
|  3> %scf
|  4>     MaxIter 2
|  5> end
|  6> 
|  7> * xyz 0 2
|  8> C       -0.71620   -0.18982    0.00000
|  9> C        0.71620    0.18982    0.00000
| 10> C        2.16620   -0.47131    0.00000
| 11> C        3.49810   -0.09527    0.00000
| 12> H       -1.09968    0.30766    0.87874
| 13> H       -1.09968    0.30766   -0.87874
| 14> H       -1.19819   -1.18058    0.00000
| 15> H        1.09968   -0.30766    0.87874
| 16> H        1.09968   -0.30766   -0.87874
| 17> H        2.23619   -1.56262    0.00000
| 18> H        3.94058   -0.66442   -0.87391
| 19> H        3.94058   -0.66442    0.87391
| 20> H        4.03716    0.91466    0.00000
| 21> *
| 22> 
| 23>                          ****END OF INPUT****
================================================================================

                       *****************************
                       * Geometry Optimization Run *
                       *****************************

Geometry optimization settings:
Update method            Update   .... BFGS
Choice of coordinates    CoordSys .... (2022) Redundant Internals
Initial Hessian          InHess   .... Almloef's Model
Max. no of cycles        MaxIter  .... 50

Convergence Tolerances:
Energy Change            TolE     ....  5.0000e-06 Eh
Max. Gradient            TolMAXG  ....  3.0000e-04 Eh/bohr
RMS Gradient             TolRMSG  ....  1.0000e-04 Eh/bohr
Max. Displacement        TolMAXD  ....  4.0000e-03 bohr
RMS Displacement         TolRMSD  ....  2.0000e-03 bohr
Strict Convergence                .... False

------------------------------------------------------------------------------
                        ORCA OPTIMIZATION COORDINATE SETUP
------------------------------------------------------------------------------

The optimization will be done in redundant internal coordinates (2022)
Making redundant internal coordinates   ...  (2022 redundants) done
Evaluating the initial hessian          ...  (Almloef) done
Evaluating the coordinates              ...  done
Calculating the B-matrix                .... done
Calculating the G-matrix                .... done
The number of degrees of freedom        ....   74

    -----------------------------------------------------------------
                    Redundant Internal Coordinates


    -----------------------------------------------------------------
         Definition                    Initial Value    Approx d2E/dq
    -----------------------------------------------------------------
      1. B(C   1,C   0)                  1.4819         0.445850   
      2. B(C   2,C   1)                  1.5936         0.295728   
      3. B(C   3,C   2)                  1.3840         0.638799   
      4. B(H   4,C   0)                  1.0802         0.373367   
      5. B(H   5,C   0)                  1.0802         0.373367   
      6. B(H   6,C   0)                  1.1018         0.344849   
      7. B(H   7,C   1)                  1.0802         0.373367   
      8. B(H   7,C   2)                  1.3916         0.118935   
      9. B(H   8,C   2)                  1.3916         0.118935   
     10. B(H   8,C   1)                  1.0802         0.373367   
     11. B(H   9,C   2)                  1.0936         0.355432   
     12. B(H  10,C   3)                  1.1329         0.307606   
     13. B(H  11,C   3)                  1.1329         0.307606   
     14. B(H  12,C   3)                  1.1448         0.294448   
     15. A(H   5,C   0,H   6)          105.0016         0.290515   
     16. A(C   1,C   0,H   5)          103.0136         0.335944   
     17. A(C   1,C   0,H   4)          103.0136         0.335944   
     18. A(H   4,C   0,H   5)          108.8853         0.294172   
     19. A(H   4,C   0,H   6)          105.0016         0.290515   
     20. A(C   1,C   0,H   6)          130.7865         0.331543   
     21. A(C   0,C   1,H   8)          103.0136         0.335944   
     22. A(C   2,C   1,H   8)           59.0625         0.314031   
     23. A(C   0,C   1,C   2)          140.6451         0.359846   
     24. A(C   0,C   1,H   7)          103.0136         0.335944   
     25. A(H   7,C   1,H   8)          108.8853         0.294172   
     26. A(C   2,C   1,H   7)           59.0625         0.314031   
     27. A(C   3,C   2,H   7)          134.8808         0.295774   
     28. A(H   8,C   2,H   9)           99.5794         0.245613   
     29. A(C   1,C   2,H   7)           41.7425         0.262697   
     30. A(C   1,C   2,H   9)          118.1803         0.311538   
     31. A(C   1,C   2,C   3)          139.7232         0.382813   
     32. A(H   7,C   2,H   8)           78.3188         0.211241   
     33. A(C   3,C   2,H   8)          134.8808         0.295774   
     34. A(C   1,C   2,H   8)           41.7425         0.262697   
     35. A(C   3,C   2,H   9)          102.0966         0.353916   
     36. A(H   7,C   2,H   9)           99.5794         0.245613   
     37. A(H  11,C   3,H  12)          105.0279         0.275094   
     38. A(H  10,C   3,H  12)          105.0279         0.275094   
     39. A(C   2,C   3,H  12)          133.8577         0.342866   
     40. A(H  10,C   3,H  11)          100.9594         0.276945   
     41. A(C   2,C   3,H  11)          103.8498         0.345391   
     42. A(C   2,C   3,H  10)          103.8498         0.345391   
     43. A(C   1,H   7,C   2)           79.1949         0.247368   
     44. A(C   1,H   8,C   2)           79.1949         0.247368   
     45. D(H   7,C   1,C   0,H   6)    -56.6137         0.015703   
     46. D(C   2,C   1,C   0,H   4)    123.3863         0.015703   
     47. D(C   2,C   1,C   0,H   6)      0.0000         0.015703   
     48. D(C   2,C   1,C   0,H   5)   -123.3863         0.015703   
     49. D(H   7,C   1,C   0,H   5)    180.0000         0.015703   
     50. D(H   7,C   1,C   0,H   4)     66.7727         0.015703   
     51. D(C   3,C   2,C   1,C   0)    180.0000         0.010000   
     52. D(H   8,C   2,C   1,H   7)    143.0545         0.010000   
     53. D(H   8,C   2,C   1,C   0)     71.5273         0.010000   
     54. D(H   7,C   2,C   1,H   8)   -143.0545         0.010000   
     55. D(H   7,C   2,C   1,C   0)    -71.5273         0.010000   
     56. D(C   3,C   2,C   1,H   8)    108.4727         0.010000   
     57. D(C   3,C   2,C   1,H   7)   -108.4727         0.010000   
     58. D(H  10,C   3,C   2,H   7)    169.5840         0.035324   
     59. D(H  10,C   3,C   2,C   1)   -127.3921         0.035324   
     60. D(H  11,C   3,C   2,H   8)   -169.5840         0.035324   
     61. D(H  11,C   3,C   2,H   7)     64.3683         0.035324   
     62. D(H  11,C   3,C   2,C   1)    127.3921         0.035324   
     63. D(H  10,C   3,C   2,H   9)     52.6079         0.035324   
     64. D(H  10,C   3,C   2,H   8)    -64.3683         0.035324   
     65. D(C   1,H   7,C   2,H   9)   -122.0192         0.011218   
     66. D(C   1,H   7,C   2,H   8)    -24.1192         0.011218   
     67. D(C   1,H   7,C   2,C   3)    120.0765         0.011218   
     68. D(C   2,H   7,C   1,H   8)     33.0160         0.132682   
     69. D(C   2,H   7,C   1,C   0)    141.8805         0.132682   
     70. D(C   1,H   8,C   2,H   9)    122.0192         0.011218   
     71. D(C   1,H   8,C   2,H   7)     24.1192         0.011218   
     72. D(C   1,H   8,C   2,C   3)   -120.0765         0.011218   
     73. D(C   2,H   8,C   1,H   7)    -33.0160         0.132682   
     74. D(C   2,H   8,C   1,C   0)   -141.8805         0.132682   
    -----------------------------------------------------------------

Number of atoms                         .... 13
Number of degrees of freedom            .... 74


         *************************************************************
         *                GEOMETRY OPTIMIZATION CYCLE   1            *
         *************************************************************
---------------------------------
CARTESIAN COORDINATES (ANGSTROEM)
---------------------------------
  C     -0.716200   -0.189820    0.000000
  C      0.716200    0.189820    0.000000
  C      2.166200   -0.471310    0.000000
  C      3.498100   -0.095270    0.000000
  H     -1.099680    0.307660    0.878740
  H     -1.099680    0.307660   -0.878740
  H     -1.198190   -1.180580    0.000000
  H      1.099680   -0.307660    0.878740
  H      1.099680   -0.307660   -0.878740
  H      2.236190   -1.562620    0.000000
  H      3.940580   -0.664420   -0.873910
  H      3.940580   -0.664420    0.873910
  H      4.037160    0.914660    0.000000

----------------------------
CARTESIAN COORDINATES (A.U.)
----------------------------
  NO LB      ZA    FRAG     MASS         X           Y           Z
   0 C     6.0000    0    12.011   -1.353422   -0.358708    0.000000
   1 C     6.0000    0    12.011    1.353422    0.358708    0.000000
   2 C     6.0000    0    12.011    4.093525   -0.890647    0.000000
   3 C     6.0000    0    12.011    6.610451   -0.180034    0.000000
   4 H     1.0000    0     1.008   -2.078094    0.581393    1.660578
   5 H     1.0000    0     1.008   -2.078094    0.581393   -1.660578
   6 H     1.0000    0     1.008   -2.264251   -2.230973    0.000000
   7 H     1.0000    0     1.008    2.078094   -0.581393    1.660578
   8 H     1.0000    0     1.008    2.078094   -0.581393   -1.660578
   9 H     1.0000    0     1.008    4.225787   -2.952924    0.000000
  10 H     1.0000    0     1.008    7.446617   -1.255572   -1.651451
  11 H     1.0000    0     1.008    7.446617   -1.255572    1.651451
  12 H     1.0000    0     1.008    7.629127    1.728457    0.000000

--------------------------------
INTERNAL COORDINATES (ANGSTROEM)
--------------------------------
 C      0   0   0     0.000000000000     0.00000000     0.00000000
 C      1   0   0     1.481855691220     0.00000000     0.00000000
 C      2   1   0     1.593610014056   140.64505880     0.00000000
 C      3   2   1     1.383966651188   139.72315276   180.00000085
 H      1   2   3     1.080151493264   103.01360588   123.38633596
 H      1   2   3     1.080151493264   103.01360588   236.61366404
 H      1   2   3     1.101780258355   130.78647760     0.00000000
 H      2   1   3     1.080151493264   103.01360588   303.38633596
 H      2   1   3     1.080151493264   103.01360588    56.61366404
 H      3   2   1     1.093552063781   118.18027378     0.00000000
 H      4   3   2     1.132889650849   103.84981763   232.60785425
 H      4   3   2     1.132889650849   103.84981763   127.39214575
 H      4   3   2     1.144790063068   133.85765696     0.00000000

---------------------------
INTERNAL COORDINATES (A.U.)
---------------------------
 C      0   0   0     0.000000000000     0.00000000     0.00000000
 C      1   0   0     2.800301426398     0.00000000     0.00000000
 C      2   1   0     3.011486490840   140.64505880     0.00000000
 C      3   2   1     2.615317949225   139.72315276   180.00000085
 H      1   2   3     2.041190505415   103.01360588   123.38633596
 H      1   2   3     2.041190505415   103.01360588   236.61366404
 H      1   2   3     2.082062948051   130.78647760     0.00000000
 H      2   1   3     2.041190505415   103.01360588   303.38633596
 H      2   1   3     2.041190505415   103.01360588    56.61366404
 H      3   2   1     2.066513913731   118.18027378     0.00000000
 H      4   3   2     2.140851180058   103.84981763   232.60785425
 H      4   3   2     2.140851180058   103.84981763   127.39214575
 H      4   3   2     2.163339700034   133.85765696     0.00000000

---------------------
BASIS SET INFORMATION
---------------------
There are 2 groups of distinct atoms

 Group   1 Type C   : 7s4p1d contracted to 3s2p1d pattern {511/31/1}
 Group   2 Type H   : 4s1p contracted to 2s1p pattern {31/1}

Atom   0C    basis set group =>   1
Atom   1C    basis set group =>   1
Atom   2C    basis set group =>   1
Atom   3C    basis set group =>   1
Atom   4H    basis set group =>   2
Atom   5H    basis set group =>   2
Atom   6H    basis set group =>   2
Atom   7H    basis set group =>   2
Atom   8H    basis set group =>   2
Atom   9H    basis set group =>   2
Atom  10H    basis set group =>   2
Atom  11H    basis set group =>   2
Atom  12H    basis set group =>   2
---------------------------------
AUXILIARY/J BASIS SET INFORMATION
---------------------------------
There are 2 groups of distinct atoms

 Group   1 Type C   : 12s5p4d2f1g contracted to 6s4p3d1f1g pattern {711111/2111/211/2/1}
 Group   2 Type H   : 5s2p1d contracted to 3s1p1d pattern {311/2/1}

Atom   0C    basis set group =>   1
Atom   1C    basis set group =>   1
Atom   2C    basis set group =>   1
Atom   3C    basis set group =>   1
Atom   4H    basis set group =>   2
Atom   5H    basis set group =>   2
Atom   6H    basis set group =>   2
Atom   7H    basis set group =>   2
Atom   8H    basis set group =>   2
Atom   9H    basis set group =>   2
Atom  10H    basis set group =>   2
Atom  11H    basis set group =>   2
Atom  12H    basis set group =>   2
------------------------------------------------------------------------------
                             ORCA STARTUP CALCULATIONS
                           -- RI-GTO INTEGRALS CHOSEN --
------------------------------------------------------------------------------
------------------------------------------------------------------------------
                   ___                                                        
                  /   \      - P O W E R E D   B Y -                         
                 /     \                                                     
                 |  |  |   _    _      __       _____    __    __             
                 |  |  |  | |  | |    /  \     |  _  \  |  |  /  |          
                  \  \/   | |  | |   /    \    | | | |  |  | /  /          
                 / \  \   | |__| |  /  /\  \   | |_| |  |  |/  /          
                |  |  |   |  __  | /  /__\  \  |    /   |      \           
                |  |  |   | |  | | |   __   |  |    \   |  |\   \          
                \     /   | |  | | |  |  |  |  | |\  \  |  | \   \       
                 \___/    |_|  |_| |__|  |__|  |_| \__\ |__|  \__/        
                                                                              
                      - O R C A' S   B I G   F R I E N D -                    
                                      &                                       
                       - I N T E G R A L  F E E D E R -                       
                                                                              
 v1 FN, 2020, v2 2021, v3 2022-2024                                           
------------------------------------------------------------------------------


----------------------
SHARK INTEGRAL PACKAGE
----------------------

Number of atoms                             ...     13
Number of basis functions                   ...    101
Number of shells                            ...     51
Maximum angular momentum                    ...      2
Integral batch strategy                     ... SHARK/LIBINT Hybrid
RI-J (if used) integral strategy            ... SPLIT-RIJ (Revised 2003 algorithm where possible)
Printlevel                                  ...      1
Contraction scheme used                     ... SEGMENTED contraction
Prescreening option                         ... SCHWARTZ
   Thresh                                   ... 1.000e-12
   Tcut                                     ... 1.000e-14
   Tpresel                                  ... 1.000e-14 
Coulomb Range Separation                    ... NOT USED
Exchange Range Separation                   ... NOT USED
Multipole approximations                    ... NOT USED
Finite Nucleus Model                        ... NOT USED
CABS basis                                  ... NOT available
Auxiliary Coulomb fitting basis             ... AVAILABLE
   # of basis functions in Aux-J            ...    295
   # of shells in Aux-J                     ...    105
   Maximum angular momentum in Aux-J        ...      4
Auxiliary J/K fitting basis                 ... NOT available
Auxiliary Correlation fitting basis         ... NOT available
Auxiliary 'external' fitting basis          ... NOT available

Checking pre-screening integrals            ... done (  0.0 sec) Dimension = 51
   => SHARK Basis and OBASIS are compatible. Storing Pre-screening
Shell pair information
Shell pair cut-off parameter TPreSel        ...   1.0e-14
Total number of shell pairs                 ...      1326
Shell pairs after pre-screening             ...      1300
Total number of primitive shell pairs       ...      4450
Primitive shell pairs kept                  ...      3608
          la=0 lb=0:    456 shell pairs
          la=1 lb=0:    504 shell pairs
          la=1 lb=1:    144 shell pairs
          la=2 lb=0:    118 shell pairs
          la=2 lb=1:     68 shell pairs
          la=2 lb=2:     10 shell pairs

Checking whether 4 symmetric matrices of dimension 101 fit in memory
:Max Core in MB      =   4096.00
 MB in use           =      5.61
 MB left             =   4090.39
 MB needed           =      0.16
 Data fit in memory  = YES
Calculating RI/J V-Matrix + Cholesky decomp.... done (  0.0 sec)
Calculating Nuclear repulsion               ... done (  0.0 sec) ENN=    122.040438719974 Eh
Entering ORCA compatibility section         ... KMAT(51) TBAS(51) (Map TSH=51 GAT=51)(Order)(Significant)(PairData)(Store)Leaving ORCA compatibility section

Diagonalization of the overlap matrix:
Smallest eigenvalue                        ... 1.722e-03
Time for diagonalization                   ...    0.001 sec
Threshold for overlap eigenvalues          ... 1.000e-07
Number of eigenvalues below threshold      ... 0
Time for construction of square roots      ...    0.000 sec
Total time needed                          ...    0.001 sec

-------------------
DFT GRID GENERATION
-------------------

General Integration Accuracy     IntAcc      ... 4.388
Radial Grid Type                 RadialGrid  ... OptM3 with GC (2021)
Angular Grid (max. ang.)         AngularGrid ... 4 (Lebedev-302)
Angular grid pruning method      GridPruning ... 4 (adaptive)
Weight generation scheme         WeightScheme... mBecke (2022)
Basis function cutoff            BFCut       ... 1.0000e-12
Integration weight cutoff        WCut        ... 1.0000e-14
Partially contracted basis set               ... off
Rotationally invariant grid construction     ... off
Angular grids for H and He will be reduced by one unit

Total number of grid points                  ...    53227
Total number of batches                      ...      839
Average number of points per batch           ...       63
Average number of grid points per atom       ...     4094

--------------------
COSX GRID GENERATION
--------------------

GRIDX 1
-------
General Integration Accuracy     IntAcc      ... 3.816
Radial Grid Type                 RadialGrid  ... OptM3 with GC (2021)
Angular Grid (max. ang.)         AngularGrid ... 1 (Lebedev-50)
Angular grid pruning method      GridPruning ... 4 (adaptive)
Weight generation scheme         WeightScheme... mBecke (2022)
Basis function cutoff            BFCut       ... 1.0000e-12
Integration weight cutoff        WCut        ... 1.0000e-14
Partially contracted basis set               ... on
Rotationally invariant grid construction     ... off
Angular grids for H and He will be reduced by one unit

Total number of grid points                  ...     6885
Total number of batches                      ...       61
Average number of points per batch           ...      112
Average number of grid points per atom       ...      530
UseSFitting                                  ... on

GRIDX 2
-------
General Integration Accuracy     IntAcc      ... 4.020
Radial Grid Type                 RadialGrid  ... OptM3 with GC (2021)
Angular Grid (max. ang.)         AngularGrid ... 2 (Lebedev-110)
Angular grid pruning method      GridPruning ... 4 (adaptive)
Weight generation scheme         WeightScheme... mBecke (2022)
Basis function cutoff            BFCut       ... 1.0000e-12
Integration weight cutoff        WCut        ... 1.0000e-14
Partially contracted basis set               ... on
Rotationally invariant grid construction     ... off
Angular grids for H and He will be reduced by one unit

Total number of grid points                  ...    14205
Total number of batches                      ...      117
Average number of points per batch           ...      121
Average number of grid points per atom       ...     1093
UseSFitting                                  ... on

GRIDX 3
-------
General Integration Accuracy     IntAcc      ... 4.338
Radial Grid Type                 RadialGrid  ... OptM3 with GC (2021)
Angular Grid (max. ang.)         AngularGrid ... 3 (Lebedev-194)
Angular grid pruning method      GridPruning ... 4 (adaptive)
Weight generation scheme         WeightScheme... mBecke (2022)
Basis function cutoff            BFCut       ... 1.0000e-12
Integration weight cutoff        WCut        ... 1.0000e-14
Partially contracted basis set               ... on
Rotationally invariant grid construction     ... off
Angular grids for H and He will be reduced by one unit

Total number of grid points                  ...    31069
Total number of batches                      ...      248
Average number of points per batch           ...      125
Average number of grid points per atom       ...     2390
UseSFitting                                  ... on
Grids setup in   0.3 sec
Initializing property integral containers    ... done (  0.0 sec)

SHARK setup successfully completed in   0.4 seconds

Maximum memory used throughout the entire STARTUP-calculation: 21.1 MB
-------------------------------------------------------------------------------
                                 ORCA GUESS
                   Start orbitals & Density for SCF / CASSCF
-------------------------------------------------------------------------------

------------
SCF SETTINGS
------------
Hamiltonian:
 Density Functional     Method          .... DFT(GTOs)
 Exchange Functional    Exchange        .... B88
   X-Alpha parameter    XAlpha          ....  0.666667
   Becke's b parameter  XBeta           ....  0.004200
 Correlation Functional Correlation     .... LYP
 LDA part of GGA corr.  LDAOpt          .... VWN-5
 Gradients option       PostSCFGGA      .... off
 Hybrid DFT is turned on
   Fraction HF Exchange ScalHFX         ....  0.200000
   Scaling of DF-GGA-X  ScalDFX         ....  0.720000
   Scaling of DF-GGA-C  ScalDFC         ....  0.810000
   Scaling of DF-LDA-C  ScalLDAC        ....  1.000000
   Perturbative correction              ....  0.000000
   NL short-range parameter             ....  4.800000
 RI-approximation to the Coulomb term is turned on
   Number of AuxJ basis functions       .... 295
   RIJ-COSX (HFX calculated with COS-X)).... on


General Settings:
 Integral files         IntName         .... job
 Hartree-Fock type      HFTyp           .... UHF
 Total Charge           Charge          ....    0
 Multiplicity           Mult            ....    2
 Number of Electrons    NEL             ....   33
 Basis Dimension        Dim             ....  101
 Nuclear Repulsion      ENuc            ....    122.0404387200 Eh

Convergence Acceleration:
 AO-DIIS                CNVDIIS         .... on
   Start iteration      DIISMaxIt       ....    12
   Startup error        DIISStart       ....  0.200000
   # of expansion vecs  DIISMaxEq       ....     5
   Bias factor          DIISBfac        ....   1.050
   Max. coefficient     DIISMaxC        ....  10.000
 MO-DIIS                CNVKDIIS        .... off
 Trust-Rad. Augm. Hess. CNVTRAH         .... auto
   Auto Start mean grad. ratio tolernc. ....  1.125000
   Auto Start start iteration           ....    50
   Auto Start num. interpolation iter.  ....    10
   Max. Number of Micro iterations      ....    24
   Max. Number of Macro iterations      .... Maxiter - #DIIS iter
   Number of Davidson start vectors     ....     2
   Converg. threshold    (grad. norm)   ....   2.000e-06
   Grad. Scal. Fac. for Micro threshold ....   0.100
   Minimum threshold for Micro iter.    ....   1.000e-02
   NR start threshold (gradient norm)   ....   1.000e-04
   Initial trust radius                 ....   0.400
   Minimum AH scaling param. (alpha)    ....   1.000
   Maximum AH scaling param. (alpha)    .... 1000.000
   Quad. conv. algorithm                .... NR
   White noise on init. David. guess    .... on
   Maximum white noise                  ....   0.010
   Pseudo random numbers                .... off
   Inactive MOs                         .... canonical
   Orbital update algorithm             .... Taylor
   Preconditioner                       .... Diag
   Full preconditioner red. dimension   ....   250
 SOSCF                 CNVSOSCF           .... on
   Start iteration     SOSCFMaxIt         ....   150
   Startup grad/error  SOSCFStart         ....  0.003300
   Hessian update      SOSCFHessUp        .... L-BFGS
   Autom. constraints  SOSCFAutoConstrain .... off
 Level Shifting         CNVShift        .... on
   Level shift para.    LevelShift      ....    0.2500
   Turn off err/grad.   ShiftErr        ....    0.0010
 Zerner damping         CNVZerner       .... off
 Static damping         CNVDamp         .... on
   Fraction old density DampFac         ....    0.7000
   Max. Damping (<1)    DampMax         ....    0.9800
   Min. Damping (>=0)   DampMin         ....    0.0000
   Turn off err/grad.   DampErr         ....    0.1000

SCF Procedure:
 Maximum # iterations   MaxIter         ....     2
 SCF integral mode      SCFMode         .... Direct
   Integral package                     .... SHARK and LIBINT hybrid scheme
 Reset frequency        DirectResetFreq ....    20
 Integral Threshold     Thresh          ....  1.000e-12 Eh
 Primitive CutOff       TCut            ....  1.000e-14 Eh

Convergence Tolerance:
 Convergence Check Mode ConvCheckMode   .... Total+1el-Energy
 Convergence forced     ConvForced      .... 0
 Energy Change          TolE            ....  1.000e-09 Eh
 1-El. energy change                    ....  1.000e-06 Eh
 Orbital Gradient       TolG            ....  2.000e-06
 Orbital Rotation angle TolX            ....  2.000e-06
 DIIS Error             TolErr          ....  1.000e-08

------------------------------
INITIAL GUESS: MODEL POTENTIAL
------------------------------
Loading Hartree-Fock densities                     ... done
Calculating cut-offs                               ... done
Initializing the effective Hamiltonian             ... done
Setting up the integral package (SHARK)            ... done
Starting the Coulomb interaction                   ... done (   0.0 sec)
Making the grid                                    ... done (   0.0 sec)
Mapping shells                                     ... done
Starting the XC term evaluation                    ... done (   0.0 sec)
  promolecular density results
     # of electrons  =     32.995851340
     EX              =    -23.270340541
     EC              =     -1.036807995
     EX+EC           =    -24.307148535
Transforming the Hamiltonian                       ... done (   0.0 sec)
Diagonalizing the Hamiltonian                      ... done (   0.0 sec)
Back transforming the eigenvectors                 ... done (   0.0 sec)
Now organizing SCF variables                       ... done
                      ------------------
                      INITIAL GUESS DONE (   0.1 sec)
                      ------------------
----------------------
GUESS ORBITAL ENERGIES
----------------------

                   SPIN UP ORBITALS
 ----------------------------------------------------
  Index      OCC           E(Eh)             E(eV)
 ----------------------------------------------------
     0      1.0000     -10.11096897      -275.133453
     1      1.0000     -10.10760725      -275.041976
     2      1.0000     -10.10101212      -274.862514
     3      1.0000     -10.09908156      -274.809980
     4      1.0000      -0.89344966       -24.312001
     5      1.0000      -0.81808278       -22.261164
     6      1.0000      -0.74693901       -20.325244
     7      1.0000      -0.60158262       -16.369895
     8      1.0000      -0.56892148       -15.481141
     9      1.0000      -0.53807943       -14.641886
    10      1.0000      -0.50883016       -13.845973
    11      1.0000      -0.48521931       -13.203489
    12      1.0000      -0.46091893       -12.542242
    13      1.0000      -0.44550975       -12.122937
    14      1.0000      -0.42615575       -11.596287
    15      1.0000      -0.27570848        -7.502409
    16      1.0000      -0.19678634        -5.354828
    17      0.0000      -0.10087891        -2.745055
    18      0.0000      -0.02754945        -0.749659
    19      0.0000       0.00678610         0.184659
    20      0.0000       0.02112472         0.574833
    21      0.0000       0.02717142         0.739372
    22      0.0000       0.03117571         0.848334
    23      0.0000       0.04207137         1.144820
    24      0.0000       0.05157204         1.403347
    25      0.0000       0.07756451         2.110638
    26      0.0000       0.10099295         2.748158
    27      0.0000       0.15317006         4.167969
    28      0.0000       0.18100915         4.925509
    29      0.0000       0.26904546         7.321099
    30      0.0000       0.28459652         7.744265
    31      0.0000       0.33362946         9.078519
    32      0.0000       0.34659499         9.431329
    33      0.0000       0.35318225         9.610577
    34      0.0000       0.39149617        10.653152
    35      0.0000       0.41587658        11.316577
    36      0.0000       0.43919478        11.951097
    37      0.0000       0.46086396        12.540746
    38      0.0000       0.47233266        12.852825
    39      0.0000       0.48207147        13.117832
    40      0.0000       0.49478875        13.463886
    41      0.0000       0.52323881        14.238052
    42      0.0000       0.52377062        14.252523
    43      0.0000       0.53649396        14.598743
    44      0.0000       0.54028072        14.701786
    45      0.0000       0.54951807        14.953147
    46      0.0000       0.57090102        15.535006
    47      0.0000       0.58055820        15.797792
    48      0.0000       0.60927610        16.579245
    49      0.0000       0.64376750        17.517804
    50      0.0000       0.67209772        18.288709
    51      0.0000       0.70492039        19.181859
    52      0.0000       0.82953678        22.572843
    53      0.0000       0.87696422        23.863410
    54      0.0000       0.89412198        24.330296
    55      0.0000       1.02973367        28.020478
    56      0.0000       1.15583685        31.451920
    57      0.0000       1.16333219        31.655878
    58      0.0000       1.24874829        33.980168
    59      0.0000       1.28988783        35.099632
    60      0.0000       1.37254502        37.348849
    61      0.0000       1.38025426        37.558628
    62      0.0000       1.39196723        37.877354
    63      0.0000       1.40195515        38.149139
    64      0.0000       1.44320675        39.271652
    65      0.0000       1.49972979        40.809722
    66      0.0000       1.57329176        42.811445
    67      0.0000       1.57940000        42.977659
    68      0.0000       1.60993116        43.808454
    69      0.0000       1.63607277        44.519803
    70      0.0000       1.63786955        44.568696
    71      0.0000       1.65319266        44.985659
    72      0.0000       1.67065366        45.460797
    73      0.0000       1.71014827        46.535500
    74      0.0000       1.75256464        47.689708
    75      0.0000       1.78726599        48.633980
    76      0.0000       1.82253188        49.593614
    77      0.0000       1.88302276        51.239654
    78      0.0000       1.92887616        52.487389
    79      0.0000       1.93370854        52.618885
    80      0.0000       2.00234788        54.486656
    81      0.0000       2.06398715        56.163946
    82      0.0000       2.10542721        57.291587
    83      0.0000       2.12742579        57.890199
    84      0.0000       2.19028465        59.600675
    85      0.0000       2.21238556        60.202072
    86      0.0000       2.26568233        61.652351
    87      0.0000       2.30109012        62.615845
    88      0.0000       2.36616745        64.386690
    89      0.0000       2.36971807        64.483307
    90      0.0000       2.41545912        65.727984
    91      0.0000       2.52235043        68.636645
    92      0.0000       2.58316240        70.291422
    93      0.0000       2.60564778        70.903281
    94      0.0000       2.68605858        73.091370
    95      0.0000       2.69659413        73.378057
    96      0.0000       2.77022472        75.381647
    97      0.0000       2.77607470        75.540833
    98      0.0000       2.85002431        77.553104
    99      0.0000       2.87150660        78.137667
   100      0.0000       3.05026223        83.001855

                  SPIN DOWN ORBITALS
 ----------------------------------------------------
  Index      OCC           E(Eh)             E(eV)
 ----------------------------------------------------
     0      1.0000     -10.11096897      -275.133453
     1      1.0000     -10.10760725      -275.041976
     2      1.0000     -10.10101212      -274.862514
     3      1.0000     -10.09908156      -274.809980
     4      1.0000      -0.89344966       -24.312001
     5      1.0000      -0.81808278       -22.261164
     6      1.0000      -0.74693901       -20.325244
     7      1.0000      -0.60158262       -16.369895
     8      1.0000      -0.56892148       -15.481141
     9      1.0000      -0.53807943       -14.641886
    10      1.0000      -0.50883016       -13.845973
    11      1.0000      -0.48521931       -13.203489
    12      1.0000      -0.46091893       -12.542242
    13      1.0000      -0.44550975       -12.122937
    14      1.0000      -0.42615575       -11.596287
    15      1.0000      -0.27570848        -7.502409
    16      0.0000      -0.19678634        -5.354828
    17      0.0000      -0.10087891        -2.745055
    18      0.0000      -0.02754945        -0.749659
    19      0.0000       0.00678610         0.184659
    20      0.0000       0.02112472         0.574833
    21      0.0000       0.02717142         0.739372
    22      0.0000       0.03117571         0.848334
    23      0.0000       0.04207137         1.144820
    24      0.0000       0.05157204         1.403347
    25      0.0000       0.07756451         2.110638
    26      0.0000       0.10099295         2.748158
    27      0.0000       0.15317006         4.167969
    28      0.0000       0.18100915         4.925509
    29      0.0000       0.26904546         7.321099
    30      0.0000       0.28459652         7.744265
    31      0.0000       0.33362946         9.078519
    32      0.0000       0.34659499         9.431329
    33      0.0000       0.35318225         9.610577
    34      0.0000       0.39149617        10.653152
    35      0.0000       0.41587658        11.316577
    36      0.0000       0.43919478        11.951097
    37      0.0000       0.46086396        12.540746
    38      0.0000       0.47233266        12.852825
    39      0.0000       0.48207147        13.117832
    40      0.0000       0.49478875        13.463886
    41      0.0000       0.52323881        14.238052
    42      0.0000       0.52377062        14.252523
    43      0.0000       0.53649396        14.598743
    44      0.0000       0.54028072        14.701786
    45      0.0000       0.54951807        14.953147
    46      0.0000       0.57090102        15.535006
    47      0.0000       0.58055820        15.797792
    48      0.0000       0.60927610        16.579245
    49      0.0000       0.64376750        17.517804
    50      0.0000       0.67209772        18.288709
    51      0.0000       0.70492039        19.181859
    52      0.0000       0.82953678        22.572843
    53      0.0000       0.87696422        23.863410
    54      0.0000       0.89412198        24.330296
    55      0.0000       1.02973367        28.020478
    56      0.0000       1.15583685        31.451920
    57      0.0000       1.16333219        31.655878
    58      0.0000       1.24874829        33.980168
    59      0.0000       1.28988783        35.099632
    60      0.0000       1.37254502        37.348849
    61      0.0000       1.38025426        37.558628
    62      0.0000       1.39196723        37.877354
    63      0.0000       1.40195515        38.149139
    64      0.0000       1.44320675        39.271652
    65      0.0000       1.49972979        40.809722
    66      0.0000       1.57329176        42.811445
    67      0.0000       1.57940000        42.977659
    68      0.0000       1.60993116        43.808454
    69      0.0000       1.63607277        44.519803
    70      0.0000       1.63786955        44.568696
    71      0.0000       1.65319266        44.985659
    72      0.0000       1.67065366        45.460797
    73      0.0000       1.71014827        46.535500
    74      0.0000       1.75256464        47.689708
    75      0.0000       1.78726599        48.633980
    76      0.0000       1.82253188        49.593614
    77      0.0000       1.88302276        51.239654
    78      0.0000       1.92887616        52.487389
    79      0.0000       1.93370854        52.618885
    80      0.0000       2.00234788        54.486656
    81      0.0000       2.06398715        56.163946
    82      0.0000       2.10542721        57.291587
    83      0.0000       2.12742579        57.890199
    84      0.0000       2.19028465        59.600675
    85      0.0000       2.21238556        60.202072
    86      0.0000       2.26568233        61.652351
    87      0.0000       2.30109012        62.615845
    88      0.0000       2.36616745        64.386690
    89      0.0000       2.36971807        64.483307
    90      0.0000       2.41545912        65.727984
    91      0.0000       2.52235043        68.636645
    92      0.0000       2.58316240        70.291422
    93      0.0000       2.60564778        70.903281
    94      0.0000       2.68605858        73.091370
    95      0.0000       2.69659413        73.378057
    96      0.0000       2.77022472        75.381647
    97      0.0000       2.77607470        75.540833
    98      0.0000       2.85002431        77.553104
    99      0.0000       2.87150660        78.137667
   100      0.0000       3.05026223        83.001855

             **** ENERGY FILE WAS UPDATED (job.en.tmp) ****
Finished Guess after   0.1 sec
Maximum memory used throughout the entire GUESS-calculation: 10.5 MB

-------------------------------------------------------------------------------------------
                                      ORCA LEAN-SCF
                              memory conserving SCF solver
-------------------------------------------------------------------------------------------

----------------------------------------D-I-I-S--------------------------------------------
Iteration    Energy (Eh)           Delta-E    RMSDP     MaxDP     DIISErr   Damp  Time(sec)
-------------------------------------------------------------------------------------------
               ***  Starting incremental Fock matrix formation  ***
    1    -157.1043343513198920     0.00e+00  2.90e-03  5.43e-02  9.36e-02  0.700   0.7
Warning: op=1 Small HOMO/LUMO gap (   0.094) - skipping pre-diagonalization
         Will do a full diagonalization
    2    -157.1854922651515380    -8.12e-02  2.32e-03  3.35e-02  4.73e-02  0.700   0.5

               *****************************************************
               *                      ERROR                        *
               *        SCF NOT CONVERGED AFTER   1 CYCLES         *
               *****************************************************

[file orca_leanscf/orca_leanscf.cpp, line 294]: Error (ORCA_LEANSCF): unfortunately, the SCF has not converged. There may be a way out but we have to stop here 

ORCA finished by error termination in LEANSCF
Calling Command: /home/mathieu/Programs/orca6/bin/orca_leanscf job.gbw 
[file orca_tools/qcmsg.cpp, line 394]: 
  .... aborting the run

